+ 0.5 0 1 cbr 500 ------- 0 0.0 5.0 0 0
- 0.5 0 1 cbr 500 ------- 0 0.0 5.0 0 0
r 0.523333 0 1 cbr 500 ------- 0 0.0 5.0 0 0
+ 0.523333 1 4 cbr 500 ------- 0 0.0 5.0 0 0
- 0.523333 1 4 cbr 500 ------- 0 0.0 5.0 0 0
r 0.546667 1 4 cbr 500 ------- 0 0.0 5.0 0 0
+ 0.546667 4 5 cbr 500 ------- 0 0.0 5.0 0 0
- 0.546667 4 5 cbr 500 ------- 0 0.0 5.0 0 0
+ 0.55 0 1 cbr 500 ------- 0 0.0 5.0 1 1
- 0.55 0 1 cbr 500 ------- 0 0.0 5.0 1 1
r 0.564667 4 5 cbr 500 ------- 0 0.0 5.0 0 0
r 0.573333 0 1 cbr 500 ------- 0 0.0 5.0 1 1
+ 0.573333 1 4 cbr 500 ------- 0 0.0 5.0 1 1
- 0.573333 1 4 cbr 500 ------- 0 0.0 5.0 1 1
r 0.596667 1 4 cbr 500 ------- 0 0.0 5.0 1 1
+ 0.596667 4 5 cbr 500 ------- 0 0.0 5.0 1 1
- 0.596667 4 5 cbr 500 ------- 0 0.0 5.0 1 1
+ 0.6 0 1 cbr 500 ------- 0 0.0 5.0 2 2
- 0.6 0 1 cbr 500 ------- 0 0.0 5.0 2 2
r 0.614667 4 5 cbr 500 ------- 0 0.0 5.0 1 1
r 0.623333 0 1 cbr 500 ------- 0 0.0 5.0 2 2
+ 0.623333 1 4 cbr 500 ------- 0 0.0 5.0 2 2
- 0.623333 1 4 cbr 500 ------- 0 0.0 5.0 2 2
r 0.646667 1 4 cbr 500 ------- 0 0.0 5.0 2 2
+ 0.646667 4 5 cbr 500 ------- 0 0.0 5.0 2 2
- 0.646667 4 5 cbr 500 ------- 0 0.0 5.0 2 2
+ 0.65 0 1 cbr 500 ------- 0 0.0 5.0 3 3
- 0.65 0 1 cbr 500 ------- 0 0.0 5.0 3 3
r 0.664667 4 5 cbr 500 ------- 0 0.0 5.0 2 2
r 0.673333 0 1 cbr 500 ------- 0 0.0 5.0 3 3
+ 0.673333 1 4 cbr 500 ------- 0 0.0 5.0 3 3
- 0.673333 1 4 cbr 500 ------- 0 0.0 5.0 3 3
r 0.696667 1 4 cbr 500 ------- 0 0.0 5.0 3 3
+ 0.696667 4 5 cbr 500 ------- 0 0.0 5.0 3 3
- 0.696667 4 5 cbr 500 ------- 0 0.0 5.0 3 3
+ 0.7 0 1 cbr 500 ------- 0 0.0 5.0 4 4
- 0.7 0 1 cbr 500 ------- 0 0.0 5.0 4 4
r 0.714667 4 5 cbr 500 ------- 0 0.0 5.0 3 3
r 0.723333 0 1 cbr 500 ------- 0 0.0 5.0 4 4
+ 0.723333 1 4 cbr 500 ------- 0 0.0 5.0 4 4
- 0.723333 1 4 cbr 500 ------- 0 0.0 5.0 4 4
r 0.746667 1 4 cbr 500 ------- 0 0.0 5.0 4 4
+ 0.746667 4 5 cbr 500 ------- 0 0.0 5.0 4 4
- 0.746667 4 5 cbr 500 ------- 0 0.0 5.0 4 4
+ 0.75 0 1 cbr 500 ------- 0 0.0 5.0 5 5
- 0.75 0 1 cbr 500 ------- 0 0.0 5.0 5 5
r 0.764667 4 5 cbr 500 ------- 0 0.0 5.0 4 4
r 0.773333 0 1 cbr 500 ------- 0 0.0 5.0 5 5
+ 0.773333 1 4 cbr 500 ------- 0 0.0 5.0 5 5
- 0.773333 1 4 cbr 500 ------- 0 0.0 5.0 5 5
r 0.796667 1 4 cbr 500 ------- 0 0.0 5.0 5 5
+ 0.796667 4 5 cbr 500 ------- 0 0.0 5.0 5 5
- 0.796667 4 5 cbr 500 ------- 0 0.0 5.0 5 5
+ 0.8 0 1 cbr 500 ------- 0 0.0 5.0 6 6
- 0.8 0 1 cbr 500 ------- 0 0.0 5.0 6 6
r 0.814667 4 5 cbr 500 ------- 0 0.0 5.0 5 5
r 0.823333 0 1 cbr 500 ------- 0 0.0 5.0 6 6
+ 0.823333 1 4 cbr 500 ------- 0 0.0 5.0 6 6
- 0.823333 1 4 cbr 500 ------- 0 0.0 5.0 6 6
r 0.846667 1 4 cbr 500 ------- 0 0.0 5.0 6 6
+ 0.846667 4 5 cbr 500 ------- 0 0.0 5.0 6 6
- 0.846667 4 5 cbr 500 ------- 0 0.0 5.0 6 6
+ 0.85 0 1 cbr 500 ------- 0 0.0 5.0 7 7
- 0.85 0 1 cbr 500 ------- 0 0.0 5.0 7 7
r 0.864667 4 5 cbr 500 ------- 0 0.0 5.0 6 6
r 0.873333 0 1 cbr 500 ------- 0 0.0 5.0 7 7
+ 0.873333 1 4 cbr 500 ------- 0 0.0 5.0 7 7
- 0.873333 1 4 cbr 500 ------- 0 0.0 5.0 7 7
r 0.896667 1 4 cbr 500 ------- 0 0.0 5.0 7 7
+ 0.896667 4 5 cbr 500 ------- 0 0.0 5.0 7 7
- 0.896667 4 5 cbr 500 ------- 0 0.0 5.0 7 7
+ 0.9 0 1 cbr 500 ------- 0 0.0 5.0 8 8
- 0.9 0 1 cbr 500 ------- 0 0.0 5.0 8 8
r 0.914667 4 5 cbr 500 ------- 0 0.0 5.0 7 7
r 0.923333 0 1 cbr 500 ------- 0 0.0 5.0 8 8
+ 0.923333 1 4 cbr 500 ------- 0 0.0 5.0 8 8
- 0.923333 1 4 cbr 500 ------- 0 0.0 5.0 8 8
r 0.946667 1 4 cbr 500 ------- 0 0.0 5.0 8 8
+ 0.946667 4 5 cbr 500 ------- 0 0.0 5.0 8 8
- 0.946667 4 5 cbr 500 ------- 0 0.0 5.0 8 8
+ 0.95 0 1 cbr 500 ------- 0 0.0 5.0 9 9
- 0.95 0 1 cbr 500 ------- 0 0.0 5.0 9 9
r 0.964667 4 5 cbr 500 ------- 0 0.0 5.0 8 8
r 0.973333 0 1 cbr 500 ------- 0 0.0 5.0 9 9
+ 0.973333 1 4 cbr 500 ------- 0 0.0 5.0 9 9
- 0.973333 1 4 cbr 500 ------- 0 0.0 5.0 9 9
r 0.996667 1 4 cbr 500 ------- 0 0.0 5.0 9 9
+ 0.996667 4 5 cbr 500 ------- 0 0.0 5.0 9 9
- 0.996667 4 5 cbr 500 ------- 0 0.0 5.0 9 9
+ 1 0 1 cbr 500 ------- 0 0.0 5.0 10 10
- 1 0 1 cbr 500 ------- 0 0.0 5.0 10 10
r 1.014667 4 5 cbr 500 ------- 0 0.0 5.0 9 9
r 1.023333 0 1 cbr 500 ------- 0 0.0 5.0 10 10
+ 1.023333 1 4 cbr 500 ------- 0 0.0 5.0 10 10
- 1.023333 1 4 cbr 500 ------- 0 0.0 5.0 10 10
r 1.046667 1 4 cbr 500 ------- 0 0.0 5.0 10 10
+ 1.046667 4 5 cbr 500 ------- 0 0.0 5.0 10 10
- 1.046667 4 5 cbr 500 ------- 0 0.0 5.0 10 10
+ 1.05 0 1 cbr 500 ------- 0 0.0 5.0 11 11
- 1.05 0 1 cbr 500 ------- 0 0.0 5.0 11 11
r 1.064667 4 5 cbr 500 ------- 0 0.0 5.0 10 10
r 1.073333 0 1 cbr 500 ------- 0 0.0 5.0 11 11
+ 1.073333 1 4 cbr 500 ------- 0 0.0 5.0 11 11
- 1.073333 1 4 cbr 500 ------- 0 0.0 5.0 11 11
r 1.096667 1 4 cbr 500 ------- 0 0.0 5.0 11 11
+ 1.096667 4 5 cbr 500 ------- 0 0.0 5.0 11 11
- 1.096667 4 5 cbr 500 ------- 0 0.0 5.0 11 11
+ 1.1 0 1 cbr 500 ------- 0 0.0 5.0 12 12
- 1.1 0 1 cbr 500 ------- 0 0.0 5.0 12 12
r 1.114667 4 5 cbr 500 ------- 0 0.0 5.0 11 11
r 1.123333 0 1 cbr 500 ------- 0 0.0 5.0 12 12
+ 1.123333 1 4 cbr 500 ------- 0 0.0 5.0 12 12
- 1.123333 1 4 cbr 500 ------- 0 0.0 5.0 12 12
r 1.146667 1 4 cbr 500 ------- 0 0.0 5.0 12 12
+ 1.146667 4 5 cbr 500 ------- 0 0.0 5.0 12 12
- 1.146667 4 5 cbr 500 ------- 0 0.0 5.0 12 12
+ 1.15 0 1 cbr 500 ------- 0 0.0 5.0 13 13
- 1.15 0 1 cbr 500 ------- 0 0.0 5.0 13 13
r 1.164667 4 5 cbr 500 ------- 0 0.0 5.0 12 12
r 1.173333 0 1 cbr 500 ------- 0 0.0 5.0 13 13
+ 1.173333 1 4 cbr 500 ------- 0 0.0 5.0 13 13
- 1.173333 1 4 cbr 500 ------- 0 0.0 5.0 13 13
r 1.196667 1 4 cbr 500 ------- 0 0.0 5.0 13 13
+ 1.196667 4 5 cbr 500 ------- 0 0.0 5.0 13 13
- 1.196667 4 5 cbr 500 ------- 0 0.0 5.0 13 13
+ 1.2 0 1 cbr 500 ------- 0 0.0 5.0 14 14
- 1.2 0 1 cbr 500 ------- 0 0.0 5.0 14 14
r 1.214667 4 5 cbr 500 ------- 0 0.0 5.0 13 13
r 1.223333 0 1 cbr 500 ------- 0 0.0 5.0 14 14
+ 1.223333 1 4 cbr 500 ------- 0 0.0 5.0 14 14
- 1.223333 1 4 cbr 500 ------- 0 0.0 5.0 14 14
r 1.246667 1 4 cbr 500 ------- 0 0.0 5.0 14 14
+ 1.246667 4 5 cbr 500 ------- 0 0.0 5.0 14 14
- 1.246667 4 5 cbr 500 ------- 0 0.0 5.0 14 14
+ 1.25 0 1 cbr 500 ------- 0 0.0 5.0 15 15
- 1.25 0 1 cbr 500 ------- 0 0.0 5.0 15 15
r 1.264667 4 5 cbr 500 ------- 0 0.0 5.0 14 14
r 1.273333 0 1 cbr 500 ------- 0 0.0 5.0 15 15
+ 1.273333 1 4 cbr 500 ------- 0 0.0 5.0 15 15
- 1.273333 1 4 cbr 500 ------- 0 0.0 5.0 15 15
r 1.296667 1 4 cbr 500 ------- 0 0.0 5.0 15 15
+ 1.296667 4 5 cbr 500 ------- 0 0.0 5.0 15 15
- 1.296667 4 5 cbr 500 ------- 0 0.0 5.0 15 15
+ 1.3 0 1 cbr 500 ------- 0 0.0 5.0 16 16
- 1.3 0 1 cbr 500 ------- 0 0.0 5.0 16 16
r 1.314667 4 5 cbr 500 ------- 0 0.0 5.0 15 15
r 1.323333 0 1 cbr 500 ------- 0 0.0 5.0 16 16
+ 1.323333 1 4 cbr 500 ------- 0 0.0 5.0 16 16
- 1.323333 1 4 cbr 500 ------- 0 0.0 5.0 16 16
r 1.346667 1 4 cbr 500 ------- 0 0.0 5.0 16 16
+ 1.346667 4 5 cbr 500 ------- 0 0.0 5.0 16 16
- 1.346667 4 5 cbr 500 ------- 0 0.0 5.0 16 16
+ 1.35 0 1 cbr 500 ------- 0 0.0 5.0 17 17
- 1.35 0 1 cbr 500 ------- 0 0.0 5.0 17 17
r 1.364667 4 5 cbr 500 ------- 0 0.0 5.0 16 16
r 1.373333 0 1 cbr 500 ------- 0 0.0 5.0 17 17
+ 1.373333 1 4 cbr 500 ------- 0 0.0 5.0 17 17
- 1.373333 1 4 cbr 500 ------- 0 0.0 5.0 17 17
r 1.396667 1 4 cbr 500 ------- 0 0.0 5.0 17 17
+ 1.396667 4 5 cbr 500 ------- 0 0.0 5.0 17 17
- 1.396667 4 5 cbr 500 ------- 0 0.0 5.0 17 17
+ 1.4 0 1 cbr 500 ------- 0 0.0 5.0 18 18
- 1.4 0 1 cbr 500 ------- 0 0.0 5.0 18 18
r 1.414667 4 5 cbr 500 ------- 0 0.0 5.0 17 17
r 1.423333 0 1 cbr 500 ------- 0 0.0 5.0 18 18
+ 1.423333 1 4 cbr 500 ------- 0 0.0 5.0 18 18
- 1.423333 1 4 cbr 500 ------- 0 0.0 5.0 18 18
r 1.446667 1 4 cbr 500 ------- 0 0.0 5.0 18 18
+ 1.446667 4 5 cbr 500 ------- 0 0.0 5.0 18 18
- 1.446667 4 5 cbr 500 ------- 0 0.0 5.0 18 18
+ 1.45 0 1 cbr 500 ------- 0 0.0 5.0 19 19
- 1.45 0 1 cbr 500 ------- 0 0.0 5.0 19 19
r 1.464667 4 5 cbr 500 ------- 0 0.0 5.0 18 18
r 1.473333 0 1 cbr 500 ------- 0 0.0 5.0 19 19
+ 1.473333 1 4 cbr 500 ------- 0 0.0 5.0 19 19
- 1.473333 1 4 cbr 500 ------- 0 0.0 5.0 19 19
r 1.496667 1 4 cbr 500 ------- 0 0.0 5.0 19 19
+ 1.496667 4 5 cbr 500 ------- 0 0.0 5.0 19 19
- 1.496667 4 5 cbr 500 ------- 0 0.0 5.0 19 19
r 1.514667 4 5 cbr 500 ------- 0 0.0 5.0 19 19
